 Gaussian 16, Revision B.01,
 Gaussian 16:  ES64L-G16RevB.01 20-Dec-2017

 ----------------------------------------------------------------------
 #p X3LYP/gen int=(grid=ultrafine,acc2e=12) test scf=(xqc,tight,maxcyc=
 200,novaracc,noincfock) geom=check guess=read opt(maxcyc=200) freq nos
 ymm
 ----------------------------------------------------------------------

 ----------------
 neutral pentance
 ----------------
 Structure from the checkpoint file:  "/scratch/scr/ds/xc05n04/202207211031.74757/pen_00.chk"
 Charge =  0 Multiplicity = 1

 SCF Done:  E(RX3LYP) =  -846.402966897     A.U. after    1 cycles
 Optimization completed.
    -- Stationary point found.
 Normal termination of Gaussian 16 at Thu Jul 21 10:31:13 2022.

 ----------------------------------------------------------------------
 #P Geom=AllCheck Guess=TCheck SCRF=Check Test GenChk RX3LYP/ChkBas Fre
 q
 ----------------------------------------------------------------------

 Structure from the checkpoint file:  "/scratch/scr/ds/xc05n04/202207211031.74757/pen_00.chk"
 ----------------
 neutral pentance
 ----------------
 Charge =  0 Multiplicity = 1

                          Input orientation:
 ---------------------------------------------------------------------
 Center     Atomic      Atomic             Coordinates (Angstroms)
 Number     Number       Type             X           Y           Z
 ---------------------------------------------------------------------
      1          6           0       -6.121805   -0.717151   -0.000000
      2          6           0       -4.944229   -1.411305   -0.000000
      3          6           0       -3.680310   -0.727644   -0.000000
      4          6           0       -2.468805   -1.408492   -0.000000
      5          6           0       -1.227032   -0.728461   -0.000000
      6          6           0       -0.000000   -1.409085   -0.000000
      7          6           0        1.227032   -0.728461   -0.000000
      8          6           0        2.468805   -1.408492   -0.000000
      9          6           0        3.680310   -0.727644   -0.000000
     10          6           0        4.944229   -1.411305   -0.000000
     11          6           0        6.121805   -0.717151   -0.000000
     12          6           0        6.121805    0.717151   -0.000000
     13          6           0        4.944229    1.411305   -0.000000
     14          6           0        3.680310    0.727644   -0.000000
     15          6           0        2.468805    1.408492   -0.000000
     16          6           0        1.227032    0.728461   -0.000000
     17          6           0        0.000000    1.409085   -0.000000
     18          6           0       -1.227032    0.728461   -0.000000
     19          6           0       -2.468805    1.408492   -0.000000
     20          6           0       -3.680310    0.727644   -0.000000
     21          6           0       -4.944229    1.411305   -0.000000
     22          6           0       -6.121805    0.717151   -0.000000
     23          1           0       -7.069292   -1.249069   -0.000000
     24          1           0       -4.943074   -2.498861   -0.000000
     25          1           0       -2.469055   -2.496837   -0.000000
     26          1           0       -0.000000   -2.497324   -0.000000
     27          1           0        2.469055   -2.496837   -0.000000
     28          1           0        4.943074   -2.498861   -0.000000
     29          1           0        7.069292   -1.249069   -0.000000
     30          1           0        7.069292    1.249069   -0.000000
     31          1           0        4.943074    2.498861   -0.000000
     32          1           0        2.469055    2.496837   -0.000000
     33          1           0        0.000000    2.497324   -0.000000
     34          1           0       -2.469055    2.496837   -0.000000
     35          1           0       -4.943074    2.498861   -0.000000
     36          1           0       -7.069292    1.249069   -0.000000
 ---------------------------------------------------------------------

 SCF Done:  E(RX3LYP) =  -846.402966897     A.U. after    1 cycles

 Alpha  occ. eigenvalues --  -10.22769 -10.22767 -10.22739 -10.22736 -10.22691
 Alpha  occ. eigenvalues --  -10.22691 -10.22660 -10.22660 -10.21791 -10.21788
 Alpha  occ. eigenvalues --  -10.21781 -10.21781 -10.21764 -10.21764 -10.21761
 Alpha  occ. eigenvalues --  -10.21761 -10.21759 -10.21758 -10.21714 -10.21714
 Alpha  occ. eigenvalues --  -10.21699 -10.21699  -0.90010  -0.88522  -0.86189
 Alpha  occ. eigenvalues --   -0.83039  -0.80467  -0.79132  -0.78954  -0.76615
 Alpha  occ. eigenvalues --   -0.74917  -0.73505  -0.69778  -0.67931  -0.63199
 Alpha  occ. eigenvalues --   -0.62947  -0.61616  -0.60491  -0.59878  -0.58227
 Alpha  occ. eigenvalues --   -0.52994  -0.52899  -0.52822  -0.50033  -0.48819
 Alpha  occ. eigenvalues --   -0.47694  -0.46599  -0.46098  -0.45781  -0.44219
 Alpha  occ. eigenvalues --   -0.43552  -0.42986  -0.42231  -0.41962  -0.41642
 Alpha  occ. eigenvalues --   -0.40980  -0.40763  -0.39810  -0.38587  -0.36929
 Alpha  occ. eigenvalues --   -0.36672  -0.35944  -0.34379  -0.34202  -0.33439
 Alpha  occ. eigenvalues --   -0.33093  -0.31811  -0.29841  -0.28547  -0.26767
 Alpha  occ. eigenvalues --   -0.24534  -0.22688  -0.17916
 Alpha virt. eigenvalues --   -0.09546  -0.04312  -0.02550  -0.00258   0.00520
 Alpha virt. eigenvalues --    0.00522   0.00675   0.01166   0.01374   0.01690
 Alpha virt. eigenvalues --    0.01852   0.02124   0.03164   0.03322   0.04621

 Mulliken charges:
               1
     1  C   -0.290739
     2  C   -0.340288
     3  C    0.167558
     4  C   -0.091144
     5  C    0.001379
     6  C   -0.173126
     7  C    0.001379
     8  C   -0.091144
     9  C    0.167558
    10  C   -0.340288
    11  C   -0.290739
    12  C   -0.290739
    13  C   -0.340288
    14  C    0.167558
    15  C   -0.091144
    16  C    0.001379
    17  C   -0.173126
    18  C    0.001379
    19  C   -0.091144
    20  C    0.167558
    21  C   -0.340288
    22  C   -0.290739
    23  H    0.181982
    24  H    0.183742
    25  H    0.182909
    26  H    0.182330
    27  H    0.182909
    28  H    0.183742
    29  H    0.181982
    30  H    0.181982
    31  H    0.183742
    32  H    0.182909
    33  H    0.182330
    34  H    0.182909
    35  H    0.183742
    36  H    0.181982
 Sum of Mulliken charges =  -0.00000

 Dipole moment (field-independent basis, Debye):
    X=              0.0000    Y=              0.0000    Z=             -0.0000  Tot=              0.0000
 Quadrupole moment (field-independent basis, Debye-Ang):
   XX=           -111.3326   YY=           -112.1925   ZZ=           -138.1479
   XY=              0.0000   XZ=              0.0000   YZ=             -0.0000

  Exact polarizability: 627.921  -0.000 254.773  -0.000   0.000 121.222
 Approx polarizability: 939.044   0.000 517.558  -0.000   0.000 190.923

                      1                      2                      3
                      A                      A                      A
 Frequencies --     37.6855                71.7384               103.8177
 Red. masses --      5.9648                 3.8881                 5.7492
 Frc consts  --      0.0050                 0.0118                 0.0365
 IR Inten    --      0.4462                 0.0000                 0.0000

                      4                      5                      6
                      A                      A                      A
 Frequencies --    118.5320               150.9956               196.7639
 Red. masses --      5.4269                 3.9647                 5.5421
 Frc consts  --      0.0449                 0.0533                 0.1264
 IR Inten    --      1.1031                 0.0000                 1.3497

                      7                      8                      9
                      A                      A                      A
 Frequencies --    237.4317               244.6674               263.8512
 Red. masses --      5.0639                 4.0402                 7.1137
 Frc consts  --      0.1682                 0.1425                 0.2918
 IR Inten    --      0.0000                 0.0000                 0.0000

                     10                     11                     12
                      A                      A                      A
 Frequencies --    299.5609               350.0109               360.4577
 Red. masses --      5.0305                 4.0944                 4.6419
 Frc consts  --      0.2660                 0.2955                 0.3553
 IR Inten    --      0.0000                 0.0000                 0.1854

                     13                     14                     15
                      A                      A                      A
 Frequencies --    382.6220               452.5691               473.4165
 Red. masses --      3.3424                 5.0801                 2.3805
 Frc consts  --      0.2883                 0.6131                 0.3143
 IR Inten    --      0.0159                 0.0000                33.8848

                     16                     17                     18
                      A                      A                      A
 Frequencies --    476.3750               482.2223               483.0692
 Red. masses --      2.4420                 2.6277                 3.5884
 Frc consts  --      0.3265                 0.3600                 0.4934
 IR Inten    --      0.0000                 5.4192                 0.0000

                     19                     20                     21
                      A                      A                      A
 Frequencies --    491.1243               511.2682               529.3319
 Red. masses --      6.9659                 5.9466                 3.6690
 Frc consts  --      0.9900                 0.9158                 0.6057
 IR Inten    --      9.4508                 0.0000                 0.0000

                     22                     23                     24
                      A                      A                      A
 Frequencies --    556.1350               578.8624               615.9808
 Red. masses --      3.4107                 6.9235                 6.9090
 Frc consts  --      0.6215                 1.3669                 1.5445
 IR Inten    --      0.0000                 2.9553                 0.0000

                     25                     26                     27
                      A                      A                      A
 Frequencies --    638.8783               646.6593               710.1688
 Red. masses --      6.7587                 7.1201                 5.1796
 Frc consts  --      1.6254                 1.7542                 1.5391
 IR Inten    --      4.9897                 0.0000                 0.0000

                     28                     29                     30
                      A                      A                      A
 Frequencies --    724.7647               747.0431               748.3027
 Red. masses --      6.2575                 3.4167                 5.5617
 Frc consts  --      1.9366                 1.1234                 1.8349
 IR Inten    --      0.0000                 0.0000                 3.0088

                     31                     32                     33
                      A                      A                      A
 Frequencies --    748.9553               755.6109               765.3175
 Red. masses --      1.2362                 1.2904                 6.4593
 Frc consts  --      0.4086                 0.4341                 2.2290
 IR Inten    --     86.9658                 0.0000                 0.0000

                     34                     35                     36
                      A                      A                      A
 Frequencies --    767.9067               775.2024               799.4584
 Red. masses --      2.9535                 2.6920                 3.9191
 Frc consts  --      1.0261                 0.9531                 1.4758
 IR Inten    --      0.0000                 0.0000                 0.0000

                     37                     38                     39
                      A                      A                      A
 Frequencies --    837.0461               842.6521               844.3498
 Red. masses --      5.7001                 1.2545                 1.4128
 Frc consts  --      2.3530                 0.5248                 0.5934
 IR Inten    --      0.1393                 0.0000                22.1795

                     40                     41                     42
                      A                      A                      A
 Frequencies --    850.3563               878.8300               894.0329
 Red. masses --      1.3757                 1.5225                 2.6170
 Frc consts  --      0.5861                 0.6928                 1.2324
 IR Inten    --      0.0000                 0.0000                 0.3664

                     43                     44                     45
                      A                      A                      A
 Frequencies --    895.4962               908.7902               920.8832
 Red. masses --      1.5023                 1.6871                 5.8317
 Frc consts  --      0.7098                 0.8210                 2.9138
 IR Inten    --      0.0000                 0.0000                 2.4263

                     46                     47                     48
                      A                      A                      A
 Frequencies --    928.4485               931.3087               935.0932
 Red. masses --      1.8209                 1.5622                 5.2481
 Frc consts  --      0.9248                 0.7983                 2.7037
 IR Inten    --      0.0000               100.1920                 0.0000

                     49                     50                     51
                      A                      A                      A
 Frequencies --    975.8748               976.6144               997.4800
 Red. masses --      1.3511                 1.3611                 1.3079
 Frc consts  --      0.7581                 0.7648                 0.7667
 IR Inten    --      0.0000                11.1588                 0.0000

                     52                     53                     54
                      A                      A                      A
 Frequencies --    997.4958              1024.7076              1027.0416
 Red. masses --      1.3075                 2.4294                 2.4053
 Frc consts  --      0.7665                 1.5030                 1.4949
 IR Inten    --      0.0000                10.7996                 0.0000

                     55                     56                     57
                      A                      A                      A
 Frequencies --   1149.2382              1150.6817              1163.5504
 Red. masses --      2.1647                 1.7411                 1.7428
 Frc consts  --      1.6845                 1.3582                 1.3902
 IR Inten    --      8.2073                 0.9618                 0.0000

                     58                     59                     60
                      A                      A                      A
 Frequencies --   1192.8596              1196.6310              1211.8094
 Red. masses --      1.1020                 1.1474                 1.2929
 Frc consts  --      0.9239                 0.9680                 1.1186
 IR Inten    --      0.0000                 0.0930                 0.0000

                     61                     62                     63
                      A                      A                      A
 Frequencies --   1221.0025              1221.6339              1251.6330
 Red. masses --      1.3277                 1.4967                 2.4327
 Frc consts  --      1.1662                 1.3161                 2.2454
 IR Inten    --      3.0768                 0.0000                 0.0000

                     64                     65                     66
                      A                      A                      A
 Frequencies --   1264.0745              1304.1389              1306.7293
 Red. masses --      2.0516                 2.0601                 1.4990
 Frc consts  --      1.9315                 2.0644                 1.5080
 IR Inten    --      1.2443                 0.0000                 0.0946

                     67                     68                     69
                      A                      A                      A
 Frequencies --   1324.5805              1325.1245              1344.9006
 Red. masses --      4.7996                 1.5266                 3.7400
 Frc consts  --      4.9614                 1.5793                 3.9857
 IR Inten    --     21.1513                 0.0000                 0.0000

                     70                     71                     72
                      A                      A                      A
 Frequencies --   1374.0025              1384.5231              1426.4998
 Red. masses --      2.2540                 2.2334                 7.6462
 Frc consts  --      2.5071                 2.5225                 9.1673
 IR Inten    --     11.9837                 1.7665                 0.0000

                     73                     74                     75
                      A                      A                      A
 Frequencies --   1430.9556              1433.4593              1444.6636
 Red. masses --      1.6524                 7.5968                 3.4157
 Frc consts  --      1.9936                 9.1972                 4.2001
 IR Inten    --      0.0000                 1.0035                 5.5914

                     76                     77                     78
                      A                      A                      A
 Frequencies --   1450.0907              1486.9128              1491.9635
 Red. masses --      5.3425                 3.4517                 2.0477
 Frc consts  --      6.6189                 4.4963                 2.6855
 IR Inten    --      0.0000                 0.3025                 0.1045

                     79                     80                     81
                      A                      A                      A
 Frequencies --   1508.0297              1556.2105              1571.4349
 Red. masses --      2.2303                 3.7899                 6.2359
 Frc consts  --      2.9884                 5.4077                 9.0729
 IR Inten    --      0.0000                 2.1326                 0.0000

                     82                     83                     84
                      A                      A                      A
 Frequencies --   1590.4065              1592.8443              1603.4727
 Red. masses --      5.7052                 6.0368                 5.2146
 Frc consts  --      8.5023                 9.0240                 7.8994
 IR Inten    --      0.0000                 3.9074                 0.0000

                     85                     86                     87
                      A                      A                      A
 Frequencies --   1648.1412              1652.7299              1684.2962
 Red. masses --      5.9417                 5.6773                 5.7807
 Frc consts  --      9.5093                 9.1368                 9.6621
 IR Inten    --      0.0000                 0.1454                 0.0000

                     88                     89                     90
                      A                      A                      A
 Frequencies --   1686.1430              3175.0013              3176.4894
 Red. masses --      5.9833                 1.0894                 1.0905
 Frc consts  --     10.0225                 6.4702                 6.4829
 IR Inten    --      7.9395                 3.2577                 0.0000

                     91                     92                     93
                      A                      A                      A
 Frequencies --   3176.5920              3178.2981              3179.7410
 Red. masses --      1.0893                 1.0897                 1.0891
 Frc consts  --      6.4760                 6.4856                 6.4876
 IR Inten    --      0.0000                 4.9150                32.3222

                     94                     95                     96
                      A                      A                      A
 Frequencies --   3181.9567              3182.0773              3182.1539
 Red. masses --      1.0861                 1.0891                 1.0868
 Frc consts  --      6.4792                 6.4976                 6.4841
 IR Inten    --      0.0000                 0.0000                32.6451

                     97                     98                     99
                      A                      A                      A
 Frequencies --   3186.1686              3186.5995              3200.3749
 Red. masses --      1.0878                 1.0880                 1.0939
 Frc consts  --      6.5065                 6.5094                 6.6012
 IR Inten    --      3.8297                 0.0000                 0.0000

                    100                    101                    102
                      A                      A                      A
 Frequencies --   3200.4010              3212.6687              3212.8406
 Red. masses --      1.0939                 1.0969                 1.0969
 Frc consts  --      6.6014                 6.6706                 6.6712
 IR Inten    --     69.8221                97.6046                 0.0000

 - Thermochemistry -
 -------------------
 Temperature   298.150 Kelvin.  Pressure   1.00000 Atm.
 Atom     1 has atomic number  6 and mass  12.00000

 Molecular mass:   278.10955 amu.
 Principal axes and moments of inertia in atomic units:
                           1         2         3
     Eigenvalues --  1368.50415********************
           X            1.00000   0.00000   0.00000
           Y           -0.00000   1.00000   0.00000
           Z            0.00000  -0.00000   1.00000
 This molecule is an asymmetric top.
 Rotational symmetry number  4.
 Warning -- assumption of classical behavior for rotation
           may cause significant error
 Rotational temperatures (Kelvin)      0.06329     0.00563     0.00517
 Rotational constants (GHZ):           1.31877     0.11721     0.10764
 Zero-point vibrational energy     755082.8 (Joules/Mol)
                                  180.46913 (Kcal/Mol)
 Warning -- explicit consideration of  24 degrees of freedom as
           vibrations may cause significant error
 Vibrational temperatures:     54.22   103.22   149.37   170.54   217.25
          (Kelvin)            283.10   341.61   352.02   379.62   431.00
                              503.59   518.62   550.51   651.15   681.14
                              685.40   693.81   695.03   706.62   735.60
                              761.59   800.15   832.85   886.26   919.20
                              930.40  1021.77  1042.77  1074.83  1076.64
                             1077.58  1087.16  1101.12  1104.85  1115.34
                             1150.24  1204.32  1212.39  1214.83  1223.47
                             1264.44  1286.31  1288.42  1307.55  1324.95
                             1335.83  1339.95  1345.39  1404.07  1405.13
                             1435.15  1435.17  1474.33  1477.68  1653.50
                             1655.57  1674.09  1716.26  1721.69  1743.52
                             1756.75  1757.66  1800.82  1818.72  1876.36
                             1880.09  1905.78  1906.56  1935.01  1976.88
                             1992.02  2052.42  2058.83  2062.43  2078.55
                             2086.36  2139.34  2146.60  2169.72  2239.04
                             2260.94  2288.24  2291.75  2307.04  2371.31
                             2377.91  2423.33  2425.98  4568.12  4570.26
                             4570.41  4572.86  4574.94  4578.13  4578.30
                             4578.41  4584.19  4584.81  4604.63  4604.66
                             4622.31  4622.56

 Zero-point correction=                           0.287596 (Hartree/Particle)
 Thermal correction to Energy=                    0.302439
 Thermal correction to Enthalpy=                  0.303383
 Thermal correction to Gibbs Free Energy=         0.247159
 Sum of electronic and zero-point Energies=           -846.115371
 Sum of electronic and thermal Energies=              -846.100528
 Sum of electronic and thermal Enthalpies=            -846.099584
 Sum of electronic and thermal Free Energies=         -846.155807

                     E (Thermal)             CV                S
                      KCal/Mol        Cal/Mol-Kelvin    Cal/Mol-Kelvin
 Total                  189.783             64.328            118.332
 Electronic               0.000              0.000              0.000
 Translational            0.889              2.981             42.767
 Rotational               0.889              2.981             31.468
 Vibrational            188.006             58.366             44.097
 Vibration     1          0.594              1.982              5.377
 Vibration     2          0.598              1.967              4.105
 Vibration     3          0.605              1.946              3.381
 Vibration     4          0.609              1.934              3.124
 Vibration     5          0.618              1.902              2.660
 Vibration     6          0.636              1.844              2.163
 Vibration     7          0.656              1.783              1.822
 Vibration     8          0.660              1.772              1.769
 Vibration     9          0.670              1.739              1.636
 Vibration    10          0.692              1.675              1.419
 Vibration    11          0.727              1.575              1.166
 Vibration    12          0.735              1.554              1.120
 Vibration    13          0.752              1.507              1.029
 Vibration    14          0.811              1.355              0.788
 Vibration    15          0.830              1.309              0.728
 Vibration    16          0.833              1.302              0.720
 Vibration    17          0.838              1.289              0.704
 Vibration    18          0.839              1.288              0.702
 Vibration    19          0.847              1.270              0.681
 Vibration    20          0.866              1.225              0.631
 Vibration    21          0.884              1.185              0.589
 Vibration    22          0.912              1.126              0.532
 Vibration    23          0.935              1.077              0.487
 Vibration    24          0.976              0.998              0.423

 Optimization completed.
    -- Stationary point found.
 Normal termination of Gaussian 16 at Thu Jul 21 10:35:32 2022.
